REMARK  Name = 25217280
REMARK  5 active torsions:
REMARK  status: ('A' for Active; 'I' for Inactive)
REMARK    1  A    between atoms: N_6  and  C_23
REMARK    2  A    between atoms: C_13  and  C_20
REMARK    3  A    between atoms: C_14  and  C_17
REMARK    4  A    between atoms: C_26  and  C_28
REMARK    5  A    between atoms: C_27  and  C_29
REMARK                            x       y       z     vdW  Elec       q    Type
REMARK                         _______ _______ _______ _____ _____    ______ ____
ROOT
ATOM      1  C   UNL     1      21.267  -8.982   0.016  0.00  0.00    +0.000 A 
ATOM      2  C   UNL     1      20.303 -10.085   0.079  0.00  0.00    +0.000 A 
ATOM      3  C   UNL     1      20.365  -8.016  -0.056  0.00  0.00    +0.000 A 
ATOM      4  C   UNL     1      17.533  -9.256  -0.001  0.00  0.00    +0.000 A 
ATOM      5  C   UNL     1      18.436 -10.222   0.070  0.00  0.00    +0.000 A 
ATOM      6  C   UNL     1      18.498  -8.153  -0.064  0.00  0.00    +0.000 A 
ATOM      7  H   UNL     1      17.812  -7.393  -0.120  0.00  0.00    +0.000 HD
ATOM      8  H   UNL     1      17.786 -11.102   0.121  0.00  0.00    +0.000 HD
ATOM      9  H   UNL     1      21.104  -7.153  -0.105  0.00  0.00    +0.000 HD
ATOM     10  H   UNL     1      20.992 -10.837   0.135  0.00  0.00    +0.000 HD
ENDROOT
BRANCH   1  22
ATOM     11  O   UNL     1      23.770  -7.661   0.080  0.00  0.00    +0.000 OA
ATOM     12  N   UNL     1      24.308 -10.057  -0.028  0.00  0.00    +0.000 N 
ATOM     13  N   UNL     1      25.139 -15.845   0.007  0.00  0.00    +0.000 N 
ATOM     14  N   UNL     1      27.890 -14.757   0.024  0.00  0.00    +0.000 NA
ATOM     15  C   UNL     1      23.273 -13.214  -0.041  0.00  0.00    +0.000 C 
ATOM     16  C   UNL     1      23.569 -11.435  -0.093  0.00  0.00    +0.000 C 
ATOM     17  C   UNL     1      25.011 -14.040  -0.013  0.00  0.00    +0.000 A 
ATOM     18  C   UNL     1      26.737 -13.375  -0.002  0.00  0.00    +0.000 A 
ATOM     19  C   UNL     1      26.240  -9.979  -0.019  0.00  0.00    +0.000 A 
ATOM     20  C   UNL     1      27.363 -11.517  -0.013  0.00  0.00    +0.000 A 
ATOM     21  C   UNL     1      26.889 -16.210   0.029  0.00  0.00    +0.000 A 
ATOM     22  C   UNL     1      23.233  -8.838   0.025  0.00  0.00    +0.000 C 
ATOM     23  C   UNL     1      27.048  -8.255  -0.021  0.00  0.00    +0.000 A 
ATOM     24  C   UNL     1      29.249 -11.252  -0.011  0.00  0.00    +0.000 A 
ATOM     25  C   UNL     1      28.911  -8.036  -0.018  0.00  0.00    +0.000 A 
ATOM     26  C   UNL     1      30.014  -9.537  -0.013  0.00  0.00    +0.000 A 
ATOM     27  C   UNL     1      27.486 -18.044   0.054  0.00  0.00    +0.000 C 
ATOM     28  H   UNL     1      24.113 -16.741   0.005  0.00  0.00    +0.000 HD
ENDBRANCH   1  22
BRANCH   4  30
ATOM     29  O   UNL     1      14.880 -11.403   0.114  0.00  0.00    +0.000 OA
ATOM     30  N   UNL     1      15.666  -9.392  -0.010  0.00  0.00    +0.000 N 
ATOM     31  C   UNL     1      14.482 -10.421   0.046  0.00  0.00    +0.000 C 
ATOM     32  H   UNL     1      15.110  -8.648  -0.064  0.00  0.00    +0.000 HD
BRANCH  31  33
ATOM     33  C   UNL     1      12.544 -10.255   0.021  0.00  0.00    +0.000 A 
ATOM     34  C   UNL     1      11.529 -11.739  -0.008  0.00  0.00    +0.000 A 
ATOM     35  C   UNL     1      11.746  -8.557   0.026  0.00  0.00    +0.000 A 
ATOM     36  C   UNL     1       9.714 -11.526  -0.032  0.00  0.00    +0.000 A 
ATOM     37  C   UNL     1       9.931  -8.344   0.003  0.00  0.00    +0.000 A 
ATOM     38  C   UNL     1       8.916  -9.829  -0.026  0.00  0.00    +0.000 A 
BRANCH  34  39
ATOM     39  C   UNL     1      12.323 -13.520  -0.015  0.00  0.00    +0.000 A 
ATOM     40  C   UNL     1      13.113 -14.089  -0.100  0.00  0.00    +0.000 A 
ATOM     41  C   UNL     1      12.298 -14.663   0.065  0.00  0.00    +0.000 A 
ATOM     42  C   UNL     1      13.877 -15.802  -0.107  0.00  0.00    +0.000 A 
ATOM     43  C   UNL     1      13.062 -16.376   0.059  0.00  0.00    +0.000 A 
ATOM     44  C   UNL     1      13.852 -16.945  -0.027  0.00  0.00    +0.000 A 
ENDBRANCH  34  39
ENDBRANCH  31  33
ENDBRANCH   4  30
TORSDOF 4
